%VERSION  VERSION_STAMP = V0001.000  DATE = 09/19/26  01:17:06
%FLAG TITLE
%FORMAT(20a4)

%FLAG POINTERS
%FORMAT(10I8)
     113      11      71       7      53       5      20       4       0       0
     195      35       7       5       4       6       7      24       1       0
       0       0       0       0       0       0       0       1      12       0
       0
%FLAG ATOM_NAME
%FORMAT(20a4)
C0  C1  H0A H0B H1A H1B H1C HA  C0  C1  H0A H0B H1A H1B H1C FB  T1  T2  T3  T4  
CL  NA  AR  H1  H2  O   H1  H2  O   H1  H2  O   H1  H2  O   H1  H2  O   H1  H2  
O   H1  H2  O   H1  H2  O   H1  H2  O   H1  H2  O   H1  H2  O   H1  H2  O   H1  
H2  O   H1  H2  O   H1  H2  O   H1  H2  O   H1  H2  O   H1  H2  O   H1  H2  O   
H1  H2  O   H1  H2  O   H1  H2  O   H1  H2  O   H1  H2  O   H1  H2  O   H1  H2  
O   H1  H2  O   H1  H2  O   H1  H2  O   H1  H2  O   
%FLAG CHARGE
%FORMAT(5E16.8)
 -4.92002100E+00 -4.92002100E+00  1.64000700E+00  1.64000700E+00  1.64000700E+00
  1.64000700E+00  1.64000700E+00  1.64000700E+00  2.18667600E+00 -4.92002100E+00
  1.09333800E+00  1.09333800E+00  1.64000700E+00  1.64000700E+00  1.64000700E+00
 -5.46669000E+00  1.82223000E+00 -3.64446000E+00  4.55557500E+00 -1.64000700E+00
 -1.82223000E+01  1.82223000E+01  0.00000000E+00 -1.51973982E+01  7.59869910E+00
  7.59869910E+00 -1.51973982E+01  7.59869910E+00  7.59869910E+00 -1.51973982E+01
  7.59869910E+00  7.59869910E+00 -1.51973982E+01  7.59869910E+00  7.59869910E+00
 -1.51973982E+01  7.59869910E+00  7.59869910E+00 -1.51973982E+01  7.59869910E+00
  7.59869910E+00 -1.51973982E+01  7.59869910E+00  7.59869910E+00 -1.51973982E+01
  7.59869910E+00  7.59869910E+00 -1.51973982E+01  7.59869910E+00  7.59869910E+00
 -1.51973982E+01  7.59869910E+00  7.59869910E+00 -1.51973982E+01  7.59869910E+00
  7.59869910E+00 -1.51973982E+01  7.59869910E+00  7.59869910E+00 -1.51973982E+01
  7.59869910E+00  7.59869910E+00 -1.51973982E+01  7.59869910E+00  7.59869910E+00
 -1.51973982E+01  7.59869910E+00  7.59869910E+00 -1.51973982E+01  7.59869910E+00
  7.59869910E+00 -1.51973982E+01  7.59869910E+00  7.59869910E+00 -1.51973982E+01
  7.59869910E+00  7.59869910E+00 -1.51973982E+01  7.59869910E+00  7.59869910E+00
 -1.51973982E+01  7.59869910E+00  7.59869910E+00 -1.51973982E+01  7.59869910E+00
  7.59869910E+00 -1.51973982E+01  7.59869910E+00  7.59869910E+00 -1.51973982E+01
  7.59869910E+00  7.59869910E+00 -1.51973982E+01  7.59869910E+00  7.59869910E+00
 -1.51973982E+01  7.59869910E+00  7.59869910E+00 -1.51973982E+01  7.59869910E+00
  7.59869910E+00 -1.51973982E+01  7.59869910E+00  7.59869910E+00 -1.51973982E+01
  7.59869910E+00  7.59869910E+00 -1.51973982E+01  7.59869910E+00  7.59869910E+00
 -1.51973982E+01  7.59869910E+00  7.59869910E+00
%FLAG ATOMIC_NUMBER
%FORMAT(10I8)
       6       6       1       1       1       1       1       1       6       6
       1       1       1       1       1       9       6       6       6       6
      17      11      18       1       1       8       1       1       8       1
       1       8       1       1       8       1       1       8       1       1
       8       1       1       8       1       1       8       1       1       8
       1       1       8       1       1       8       1       1       8       1
       1       8       1       1       8       1       1       8       1       1
       8       1       1       8       1       1       8       1       1       8
       1       1       8       1       1       8       1       1       8       1
       1       8       1       1       8       1       1       8       1       1
       8       1       1       8       1       1       8       1       1       8
       1       1       8
%FLAG MASS
%FORMAT(5E16.8)
  1.20107800E+01  1.20107800E+01  1.00794700E+00  1.00794700E+00  1.00794700E+00
  1.00794700E+00  1.00794700E+00  1.00794700E+00  1.20107800E+01  1.20107800E+01
  1.00794700E+00  1.00794700E+00  1.00794700E+00  1.00794700E+00  1.00794700E+00
  1.89984032E+01  1.20107800E+01  1.20107800E+01  1.20107800E+01  1.20107800E+01
  3.54532000E+01  2.29897693E+01  3.99481000E+01  1.00794700E+00  1.00794700E+00
  1.59994300E+01  1.00794700E+00  1.00794700E+00  1.59994300E+01  1.00794700E+00
  1.00794700E+00  1.59994300E+01  1.00794700E+00  1.00794700E+00  1.59994300E+01
  1.00794700E+00  1.00794700E+00  1.59994300E+01  1.00794700E+00  1.00794700E+00
  1.59994300E+01  1.00794700E+00  1.00794700E+00  1.59994300E+01  1.00794700E+00
  1.00794700E+00  1.59994300E+01  1.00794700E+00  1.00794700E+00  1.59994300E+01
  1.00794700E+00  1.00794700E+00  1.59994300E+01  1.00794700E+00  1.00794700E+00
  1.59994300E+01  1.00794700E+00  1.00794700E+00  1.59994300E+01  1.00794700E+00
  1.00794700E+00  1.59994300E+01  1.00794700E+00  1.00794700E+00  1.59994300E+01
  1.00794700E+00  1.00794700E+00  1.59994300E+01  1.00794700E+00  1.00794700E+00
  1.59994300E+01  1.00794700E+00  1.00794700E+00  1.59994300E+01  1.00794700E+00
  1.00794700E+00  1.59994300E+01  1.00794700E+00  1.00794700E+00  1.59994300E+01
  1.00794700E+00  1.00794700E+00  1.59994300E+01  1.00794700E+00  1.00794700E+00
  1.59994300E+01  1.00794700E+00  1.00794700E+00  1.59994300E+01  1.00794700E+00
  1.00794700E+00  1.59994300E+01  1.00794700E+00  1.00794700E+00  1.59994300E+01
  1.00794700E+00  1.00794700E+00  1.59994300E+01  1.00794700E+00  1.00794700E+00
  1.59994300E+01  1.00794700E+00  1.00794700E+00  1.59994300E+01  1.00794700E+00
  1.00794700E+00  1.59994300E+01  1.00794700E+00  1.00794700E+00  1.59994300E+01
  1.00794700E+00  1.00794700E+00  1.59994300E+01
%FLAG ATOM_TYPE_INDEX
%FORMAT(10I8)
       1       1       2       2       2       2       2       2       3       1
       2       2       2       2       2       4       5       5       5       5
       6       7       8       9      10      11       9      10      11       9
      10      11       9      10      11       9      10      11       9      10
      11       9      10      11       9      10      11       9      10      11
       9      10      11       9      10      11       9      10      11       9
      10      11       9      10      11       9      10      11       9      10
      11       9      10      11       9      10      11       9      10      11
       9      10      11       9      10      11       9      10      11       9
      10      11       9      10      11       9      10      11       9      10
      11       9      10      11       9      10      11       9      10      11
       9      10      11
%FLAG NUMBER_EXCLUDED_ATOMS
%FORMAT(10I8)
       7       6       5       4       3       2       1       1       9       7
       6       5       3       2       1       3       3       2       1       1
       1       1       1       2       1       1       2       1       1       2
       1       1       2       1       1       2       1       1       2       1
       1       2       1       1       2       1       1       2       1       1
       2       1       1       2       1       1       2       1       1       2
       1       1       2       1       1       2       1       1       2       1
       1       2       1       1       2       1       1       2       1       1
       2       1       1       2       1       1       2       1       1       2
       1       1       2       1       1       2       1       1       2       1
       1       2       1       1       2       1       1       2       1       1
       2       1       1
%FLAG NONBONDED_PARM_INDEX
%FORMAT(10I8)
       1       2       4       7      11      16      22      29      37      46
      56       2       3       5       8      12      17      23      30      38
      47      57       4       5       6       9      13      18      24      31
      39      48      58       7       8       9      10      14      19      25
      32      40      49      59      11      12      13      14      15      20
      26      33      41      50      60      16      17      18      19      20
      21      27      34      42      51      61      22      23      24      25
      26      27      28      35      43      52      62      29      30      31
      32      33      34      35      36      44      53      63      37      38
      39      40      41      42      43      44      45      54      64      46
      47      48      49      50      51      52      53      54      55      65
      56      57      58      59      60      61      62      63      64      65
      66
%FLAG RESIDUE_LABEL
%FORMAT(20a4)
MLA MLB CL  NA  PRB WTR WTR WTR WTR WTR WTR WTR WTR WTR WTR WTR WTR WTR WTR WTR 
WTR WTR WTR WTR WTR WTR WTR WTR WTR WTR WTR WTR WTR WTR WTR 
%FLAG RESIDUE_POINTER
%FORMAT(10I8)
       1       9      21      22      23      26      29      32      35      38
      41      44      47      50      53      56      59      62      65      68
      71      74      77      80      83      86      89      92      95      98
     101     104     107     110     113
%FLAG BOND_FORCE_CONSTANT
%FORMAT(5E16.8)
  2.98757170E+02  3.34608031E+02  3.58508604E+02  3.58508604E+02  2.98757170E+02
  5.49713193E+02
%FLAG BOND_EQUIL_VALUE
%FORMAT(5E16.8)
  1.53000000E+00  1.09000000E+00  1.10000000E+00  1.38000000E+00  1.50000000E+00
  9.57200000E-01
%FLAG ANGLE_FORCE_CONSTANT
%FORMAT(5E16.8)
  3.58508604E+01  3.34608031E+01  4.30210325E+01  4.78011472E+01  4.18260038E+01
  5.37762906E+01  1.00000000E+02
%FLAG ANGLE_EQUIL_VALUE
%FORMAT(5E16.8)
  1.91113553E+00  1.91113553E+00  1.91113553E+00  1.91113553E+00  1.91113553E+00
  1.95476876E+00  1.82400000E+00
%FLAG DIHEDRAL_FORCE_CONSTANT
%FORMAT(5E16.8)
  1.43403442E-01  1.43403442E-01  1.43403442E-01  1.43403442E-01  1.43403442E-01
  1.43403442E-01  1.43403442E-01  1.43403442E-01  1.43403442E-01  1.91204589E-01
  1.43403442E-01  1.43403442E-01  1.43403442E-01  1.43403442E-01  1.43403442E-01
  1.43403442E-01  1.43403442E-01  1.43403442E-01  1.67304015E-01  1.67304015E-01
  1.67304015E-01  1.67304015E-01  0.00000000E+00  0.00000000E+00
%FLAG DIHEDRAL_PERIODICITY
%FORMAT(5E16.8)
  3.00000000E+00  3.00000000E+00  3.00000000E+00  3.00000000E+00  3.00000000E+00
  3.00000000E+00  3.00000000E+00  3.00000000E+00  3.00000000E+00  3.00000000E+00
  3.00000000E+00  3.00000000E+00  3.00000000E+00  3.00000000E+00  3.00000000E+00
  3.00000000E+00  3.00000000E+00  3.00000000E+00  3.00000000E+00  3.00000000E+00
  3.00000000E+00  3.00000000E+00  1.00000000E+00  1.00000000E+00
%FLAG DIHEDRAL_PHASE
%FORMAT(5E16.8)
  0.00000000E+00  0.00000000E+00  0.00000000E+00  0.00000000E+00  0.00000000E+00
  0.00000000E+00  0.00000000E+00  0.00000000E+00  0.00000000E+00  0.00000000E+00
  0.00000000E+00  0.00000000E+00  0.00000000E+00  0.00000000E+00  0.00000000E+00
  0.00000000E+00  0.00000000E+00  0.00000000E+00  0.00000000E+00  0.00000000E+00
  0.00000000E+00  0.00000000E+00  0.00000000E+00  0.00000000E+00
%FLAG SCEE_SCALE_FACTOR
%FORMAT(5E16.8)
  1.20000000E+00  1.20000000E+00  1.20000000E+00  1.20000000E+00  1.20000000E+00
  1.20000000E+00  1.20000000E+00  1.20000000E+00  1.20000000E+00  1.20000000E+00
  1.20000000E+00  1.20000000E+00  1.20000000E+00  1.20000000E+00  1.20000000E+00
  1.20000000E+00  1.20000000E+00  1.20000000E+00  1.20000000E+00  1.20000000E+00
  1.20000000E+00  1.20000000E+00  1.20000000E+00  1.20000000E+00
%FLAG SCNB_SCALE_FACTOR
%FORMAT(5E16.8)
  2.00000000E+00  2.00000000E+00  2.00000000E+00  2.00000000E+00  2.00000000E+00
  2.00000000E+00  2.00000000E+00  2.00000000E+00  2.00000000E+00  2.00000000E+00
  2.00000000E+00  2.00000000E+00  2.00000000E+00  2.00000000E+00  2.00000000E+00
  2.00000000E+00  2.00000000E+00  2.00000000E+00  2.00000000E+00  2.00000000E+00
  2.00000000E+00  2.00000000E+00  2.00000000E+00  2.00000000E+00
%FLAG SOLTY
%FORMAT(5E16.8)
  0.00000000E+00
%FLAG LENNARD_JONES_ACOEF
%FORMAT(5E16.8)
  1.04263313E+06  9.72553829E+04  7.53328108E+03  8.46639112E+05  7.72376175E+04
  6.85652477E+05  3.76267099E+05  3.19699912E+04  3.02133776E+05  1.29557796E+05
  4.08118971E+05  3.46763241E+04  3.27710092E+05  1.40525160E+05  1.52420937E+05
  5.17356418E+06  5.83107459E+05  4.29852482E+06  2.05469439E+06  2.22862897E+06
  2.10415009E+07  1.46715579E+05  1.34751701E+04  1.18914258E+05  5.25353914E+04
  5.69826326E+04  7.39740557E+05  2.06185019E+04  1.42341383E+06  1.35665077E+05
  1.15884452E+06  5.19295265E+05  5.63254798E+05  6.90712362E+06  2.00660288E+05
  1.93836740E+06  7.84676462E+05  6.91441644E+04  6.32830976E+05  2.75174639E+05
  2.98468802E+05  4.12846385E+06  1.09891978E+05  1.07838117E+06  5.80299340E+05
  0.00000000E+00  0.00000000E+00  0.00000000E+00  0.00000000E+00  0.00000000E+00
  0.00000000E+00  0.00000000E+00  0.00000000E+00  0.00000000E+00  0.00000000E+00
  0.00000000E+00  0.00000000E+00  0.00000000E+00  0.00000000E+00  0.00000000E+00
  0.00000000E+00  0.00000000E+00  0.00000000E+00  0.00000000E+00  0.00000000E+00
  0.00000000E+00
%FLAG LENNARD_JONES_BCOEF
%FORMAT(5E16.8)
  6.74928889E+02  1.26929151E+02  2.17524875E+01  5.99003673E+02  1.11405607E+02
  5.30909395E+02  3.50426044E+02  6.28972711E+01  3.09268691E+02  1.77719885E+02
  3.80090411E+02  6.82216691E+01  3.35448994E+02  1.92764280E+02  2.09082218E+02
  1.47028728E+03  3.03944206E+02  1.31994265E+03  8.00823651E+02  8.68615207E+02
  2.89975066E+03  1.01056865E+02  1.88584991E+01  8.96051011E+01  5.22648474E+01
  5.66891863E+01  2.21912845E+02  1.51213897E+01  8.44144142E+02  1.60471291E+02
  7.50156144E+02  4.40670722E+02  4.77974507E+02  1.81850565E+03  1.26507765E+02
  1.05445447E+03  6.35949748E+02  1.16243197E+02  5.62483018E+02  3.25490025E+02
  3.53043501E+02  1.42654918E+03  9.49939462E+01  7.98035840E+02  5.94003158E+02
  0.00000000E+00  0.00000000E+00  0.00000000E+00  0.00000000E+00  0.00000000E+00
  0.00000000E+00  0.00000000E+00  0.00000000E+00  0.00000000E+00  0.00000000E+00
  0.00000000E+00  0.00000000E+00  0.00000000E+00  0.00000000E+00  0.00000000E+00
  0.00000000E+00  0.00000000E+00  0.00000000E+00  0.00000000E+00  0.00000000E+00
  0.00000000E+00
%FLAG BONDS_INC_HYDROGEN
%FORMAT(10I8)
       0       6       2       0       9       2       3      12       2       3
      15       2       3      18       2       0      21       2      24      30
       3      24      33       2      27      36       2      27      39       2
      27      42       2      69      72       6      69      75       6      78
      81       6      78      84       6      87      90       6      87      93
       6      96      99       6      96     102       6     105     108       6
     105     111       6     114     117       6     114     120       6     123
     126       6     123     129       6     132     135       6     132     138
       6     141     144       6     141     147       6     150     153       6
     150     156       6     159     162       6     159     165       6     168
     171       6     168     174       6     177     180       6     177     183
       6     186     189       6     186     192       6     195     198       6
     195     201       6     204     207       6     204     210       6     213
     216       6     213     219       6     222     225       6     222     228
       6     231     234       6     231     237       6     240     243       6
     240     246       6     249     252       6     249     255       6     258
     261       6     258     264       6     267     270       6     267     273
       6     276     279       6     276     282       6     285     288       6
     285     291       6     294     297       6     294     300       6     303
     306       6     303     309       6     312     315       6     312     318
       6     321     324       6     321     327       6     330     333       6
     330     336       6
%FLAG BONDS_WITHOUT_HYDROGEN
%FORMAT(10I8)
       0       3       1      24      27       1      24      45       4      45
      48       5      48      51       5      51      54       5      54      57
       5
%FLAG ANGLES_INC_HYDROGEN
%FORMAT(10I8)
       3       0       6       1       3       0       9       1       6       0
       9       2       3       0      21       1       6       0      21       2
       9       0      21       2       0       3      12       1       0       3
      15       1       0       3      18       1      12       3      15       2
      12       3      18       2      15       3      18       2      27      24
      30       3      27      24      33       1      30      24      33       2
      30      24      45       5      33      24      45       5      24      27
      36       1      24      27      39       1      24      27      42       1
      36      27      39       2      36      27      42       2      39      27
      42       2      72      69      75       7      81      78      84       7
      90      87      93       7      99      96     102       7     108     105
     111       7     117     114     120       7     126     123     129       7
     135     132     138       7     144     141     147       7     153     150
     156       7     162     159     165       7     171     168     174       7
     180     177     183       7     189     186     192       7     198     195
     201       7     207     204     210       7     216     213     219       7
     225     222     228       7     234     231     237       7     243     240
     246       7     252     249     255       7     261     258     264       7
     270     267     273       7     279     276     282       7     288     285
     291       7     297     294     300       7     306     303     309       7
     315     312     318       7     324     321     327       7     333     330
     336       7
%FLAG ANGLES_WITHOUT_HYDROGEN
%FORMAT(10I8)
      27      24      45       4      24      45      48       6      45      48
      51       6      48      51      54       6      51      54      57       6
%FLAG DIHEDRALS_INC_HYDROGEN
%FORMAT(10I8)
       6       0       3      12       1       9       0       3      12       2
      21       0       3      12       3       6       0       3      15       4
       9       0       3      15       5      21       0       3      15       6
       6       0       3      18       7       9       0       3      18       8
      21       0       3      18       9      36      27      24      30      10
      36      27      24      33      11      36      27      24      45      12
      39      27      24      30      13      39      27      24      33      14
      39      27      24      45      15      42      27      24      30      16
      42      27      24      33      17      42      27      24      45      18
      30      24      45      48      23      33      24      45      48      24
%FLAG DIHEDRALS_WITHOUT_HYDROGEN
%FORMAT(10I8)
      27      24      45      48      19      24      45      48      51      20
      45      48      51      54      21      48      51      54      57      22
%FLAG EXCLUDED_ATOMS_LIST
%FORMAT(10I8)
       2       3       4       5       6       7       8       3       4       5
       6       7       8       4       5       6       7       8       5       6
       7       8       6       7       8       7       8       8       0      10
      11      12      13      14      15      16      17      18      11      12
      13      14      15      16      17      12      13      14      15      16
      17      13      14      15      16      17      14      15      16      15
      16      16      17      18      19      18      19      20      19      20
      20       0       0       0       0      25      26      26       0      28
      29      29       0      31      32      32       0      34      35      35
       0      37      38      38       0      40      41      41       0      43
      44      44       0      46      47      47       0      49      50      50
       0      52      53      53       0      55      56      56       0      58
      59      59       0      61      62      62       0      64      65      65
       0      67      68      68       0      70      71      71       0      73
      74      74       0      76      77      77       0      79      80      80
       0      82      83      83       0      85      86      86       0      88
      89      89       0      91      92      92       0      94      95      95
       0      97      98      98       0     100     101     101       0     103
     104     104       0     106     107     107       0     109     110     110
       0     112     113     113       0
%FLAG HBOND_ACOEF
%FORMAT(5E16.8)

%FLAG HBOND_BCOEF
%FORMAT(5E16.8)

%FLAG HBCUT
%FORMAT(5E16.8)

%FLAG AMBER_ATOM_TYPE
%FORMAT(20a4)
C1  C1  H1  H1  H1  H1  H1  H1  C2  C1  H1  H1  H1  H1  H1  F1  C3  C3  C3  C3  
Cl1 Na1 Ar1 H2  H3  O1  H2  H3  O1  H2  H3  O1  H2  H3  O1  H2  H3  O1  H2  H3  
O1  H2  H3  O1  H2  H3  O1  H2  H3  O1  H2  H3  O1  H2  H3  O1  H2  H3  O1  H2  
H3  O1  H2  H3  O1  H2  H3  O1  H2  H3  O1  H2  H3  O1  H2  H3  O1  H2  H3  O1  
H2  H3  O1  H2  H3  O1  H2  H3  O1  H2  H3  O1  H2  H3  O1  H2  H3  O1  H2  H3  
O1  H2  H3  O1  H2  H3  O1  H2  H3  O1  H2  H3  O1  
%FLAG TREE_CHAIN_CLASSIFICATION
%FORMAT(20a4)
BLA BLA BLA BLA BLA BLA BLA BLA BLA BLA BLA BLA BLA BLA BLA BLA BLA BLA BLA BLA 
BLA BLA BLA BLA BLA BLA BLA BLA BLA BLA BLA BLA BLA BLA BLA BLA BLA BLA BLA BLA 
BLA BLA BLA BLA BLA BLA BLA BLA BLA BLA BLA BLA BLA BLA BLA BLA BLA BLA BLA BLA 
BLA BLA BLA BLA BLA BLA BLA BLA BLA BLA BLA BLA BLA BLA BLA BLA BLA BLA BLA BLA 
BLA BLA BLA BLA BLA BLA BLA BLA BLA BLA BLA BLA BLA BLA BLA BLA BLA BLA BLA BLA 
BLA BLA BLA BLA BLA BLA BLA BLA BLA BLA BLA BLA BLA 
%FLAG JOIN_ARRAY
%FORMAT(10I8)
       0       0       0       0       0       0       0       0       0       0
       0       0       0       0       0       0       0       0       0       0
       0       0       0       0       0       0       0       0       0       0
       0       0       0       0       0       0       0       0       0       0
       0       0       0       0       0       0       0       0       0       0
       0       0       0       0       0       0       0       0       0       0
       0       0       0       0       0       0       0       0       0       0
       0       0       0       0       0       0       0       0       0       0
       0       0       0       0       0       0       0       0       0       0
       0       0       0       0       0       0       0       0       0       0
       0       0       0       0       0       0       0       0       0       0
       0       0       0
%FLAG IROTAT
%FORMAT(10I8)
       0       0       0       0       0       0       0       0       0       0
       0       0       0       0       0       0       0       0       0       0
       0       0       0       0       0       0       0       0       0       0
       0       0       0       0       0       0       0       0       0       0
       0       0       0       0       0       0       0       0       0       0
       0       0       0       0       0       0       0       0       0       0
       0       0       0       0       0       0       0       0       0       0
       0       0       0       0       0       0       0       0       0       0
       0       0       0       0       0       0       0       0       0       0
       0       0       0       0       0       0       0       0       0       0
       0       0       0       0       0       0       0       0       0       0
       0       0       0
%FLAG SOLVENT_POINTERS
%FORMAT(3I8)
      35      35      36
%FLAG ATOMS_PER_MOLECULE
%FORMAT(10I8)
       8      12       1       1       1       3       3       3       3       3
       3       3       3       3       3       3       3       3       3       3
       3       3       3       3       3       3       3       3       3       3
       3       3       3       3       3
%FLAG BOX_DIMENSIONS
%FORMAT(5E16.8)
  9.00000000E+01  2.40000000E+01  2.40000000E+01  2.40000000E+01
%FLAG RADIUS_SET
%FORMAT(1a80)
0                                                                               
%FLAG RADII
%FORMAT(5E16.8)
  0.00000000E+00  0.00000000E+00  0.00000000E+00  0.00000000E+00  0.00000000E+00
  0.00000000E+00  0.00000000E+00  0.00000000E+00  0.00000000E+00  0.00000000E+00
  0.00000000E+00  0.00000000E+00  0.00000000E+00  0.00000000E+00  0.00000000E+00
  0.00000000E+00  0.00000000E+00  0.00000000E+00  0.00000000E+00  0.00000000E+00
  0.00000000E+00  0.00000000E+00  0.00000000E+00  0.00000000E+00  0.00000000E+00
  0.00000000E+00  0.00000000E+00  0.00000000E+00  0.00000000E+00  0.00000000E+00
  0.00000000E+00  0.00000000E+00  0.00000000E+00  0.00000000E+00  0.00000000E+00
  0.00000000E+00  0.00000000E+00  0.00000000E+00  0.00000000E+00  0.00000000E+00
  0.00000000E+00  0.00000000E+00  0.00000000E+00  0.00000000E+00  0.00000000E+00
  0.00000000E+00  0.00000000E+00  0.00000000E+00  0.00000000E+00  0.00000000E+00
  0.00000000E+00  0.00000000E+00  0.00000000E+00  0.00000000E+00  0.00000000E+00
  0.00000000E+00  0.00000000E+00  0.00000000E+00  0.00000000E+00  0.00000000E+00
  0.00000000E+00  0.00000000E+00  0.00000000E+00  0.00000000E+00  0.00000000E+00
  0.00000000E+00  0.00000000E+00  0.00000000E+00  0.00000000E+00  0.00000000E+00
  0.00000000E+00  0.00000000E+00  0.00000000E+00  0.00000000E+00  0.00000000E+00
  0.00000000E+00  0.00000000E+00  0.00000000E+00  0.00000000E+00  0.00000000E+00
  0.00000000E+00  0.00000000E+00  0.00000000E+00  0.00000000E+00  0.00000000E+00
  0.00000000E+00  0.00000000E+00  0.00000000E+00  0.00000000E+00  0.00000000E+00
  0.00000000E+00  0.00000000E+00  0.00000000E+00  0.00000000E+00  0.00000000E+00
  0.00000000E+00  0.00000000E+00  0.00000000E+00  0.00000000E+00  0.00000000E+00
  0.00000000E+00  0.00000000E+00  0.00000000E+00  0.00000000E+00  0.00000000E+00
  0.00000000E+00  0.00000000E+00  0.00000000E+00  0.00000000E+00  0.00000000E+00
  0.00000000E+00  0.00000000E+00  0.00000000E+00
%FLAG SCREEN
%FORMAT(5E16.8)
  0.00000000E+00  0.00000000E+00  0.00000000E+00  0.00000000E+00  0.00000000E+00
  0.00000000E+00  0.00000000E+00  0.00000000E+00  0.00000000E+00  0.00000000E+00
  0.00000000E+00  0.00000000E+00  0.00000000E+00  0.00000000E+00  0.00000000E+00
  0.00000000E+00  0.00000000E+00  0.00000000E+00  0.00000000E+00  0.00000000E+00
  0.00000000E+00  0.00000000E+00  0.00000000E+00  0.00000000E+00  0.00000000E+00
  0.00000000E+00  0.00000000E+00  0.00000000E+00  0.00000000E+00  0.00000000E+00
  0.00000000E+00  0.00000000E+00  0.00000000E+00  0.00000000E+00  0.00000000E+00
  0.00000000E+00  0.00000000E+00  0.00000000E+00  0.00000000E+00  0.00000000E+00
  0.00000000E+00  0.00000000E+00  0.00000000E+00  0.00000000E+00  0.00000000E+00
  0.00000000E+00  0.00000000E+00  0.00000000E+00  0.00000000E+00  0.00000000E+00
  0.00000000E+00  0.00000000E+00  0.00000000E+00  0.00000000E+00  0.00000000E+00
  0.00000000E+00  0.00000000E+00  0.00000000E+00  0.00000000E+00  0.00000000E+00
  0.00000000E+00  0.00000000E+00  0.00000000E+00  0.00000000E+00  0.00000000E+00
  0.00000000E+00  0.00000000E+00  0.00000000E+00  0.00000000E+00  0.00000000E+00
  0.00000000E+00  0.00000000E+00  0.00000000E+00  0.00000000E+00  0.00000000E+00
  0.00000000E+00  0.00000000E+00  0.00000000E+00  0.00000000E+00  0.00000000E+00
  0.00000000E+00  0.00000000E+00  0.00000000E+00  0.00000000E+00  0.00000000E+00
  0.00000000E+00  0.00000000E+00  0.00000000E+00  0.00000000E+00  0.00000000E+00
  0.00000000E+00  0.00000000E+00  0.00000000E+00  0.00000000E+00  0.00000000E+00
  0.00000000E+00  0.00000000E+00  0.00000000E+00  0.00000000E+00  0.00000000E+00
  0.00000000E+00  0.00000000E+00  0.00000000E+00  0.00000000E+00  0.00000000E+00
  0.00000000E+00  0.00000000E+00  0.00000000E+00  0.00000000E+00  0.00000000E+00
  0.00000000E+00  0.00000000E+00  0.00000000E+00
%FLAG IPOL
%FORMAT(1I8)
       0
