%VERSION  VERSION_STAMP = V0001.000  DATE = 09/19/26  01:17:20
%FLAG TITLE
%FORMAT(20a4)

%FLAG POINTERS
%FORMAT(10I8)
     109       9      71       3      53       1      18       0       0       0
     181      35       3       1       0       5       6      18       1       0
       0       0       0       0       0       0       0       1       8       0
       0
%FLAG ATOM_NAME
%FORMAT(20a4)
C0  C1  H0A H0B H1A H1B H1C HA  C0  C1  H0A H0B H1A H1B H1C FB  CL  NA  AR  O   
H1  H2  O   H1  H2  O   H1  H2  O   H1  H2  O   H1  H2  O   H1  H2  O   H1  H2  
O   H1  H2  O   H1  H2  O   H1  H2  O   H1  H2  O   H1  H2  O   H1  H2  O   H1  
H2  O   H1  H2  O   H1  H2  O   H1  H2  O   H1  H2  O   H1  H2  O   H1  H2  O   
H1  H2  O   H1  H2  O   H1  H2  O   H1  H2  O   H1  H2  O   H1  H2  O   H1  H2  
O   H1  H2  O   H1  H2  O   H1  H2  
%FLAG CHARGE
%FORMAT(5E16.8)
 -4.92002100E+00 -4.92002100E+00  1.64000700E+00  1.64000700E+00  1.64000700E+00
  1.64000700E+00  1.64000700E+00  1.64000700E+00  2.18667600E+00 -4.92002100E+00
  1.09333800E+00  1.09333800E+00  1.64000700E+00  1.64000700E+00  1.64000700E+00
 -4.37335200E+00 -1.82223000E+01  1.82223000E+01  0.00000000E+00 -1.51973982E+01
  7.59869910E+00  7.59869910E+00 -1.51973982E+01  7.59869910E+00  7.59869910E+00
 -1.51973982E+01  7.59869910E+00  7.59869910E+00 -1.51973982E+01  7.59869910E+00
  7.59869910E+00 -1.51973982E+01  7.59869910E+00  7.59869910E+00 -1.51973982E+01
  7.59869910E+00  7.59869910E+00 -1.51973982E+01  7.59869910E+00  7.59869910E+00
 -1.51973982E+01  7.59869910E+00  7.59869910E+00 -1.51973982E+01  7.59869910E+00
  7.59869910E+00 -1.51973982E+01  7.59869910E+00  7.59869910E+00 -1.51973982E+01
  7.59869910E+00  7.59869910E+00 -1.51973982E+01  7.59869910E+00  7.59869910E+00
 -1.51973982E+01  7.59869910E+00  7.59869910E+00 -1.51973982E+01  7.59869910E+00
  7.59869910E+00 -1.51973982E+01  7.59869910E+00  7.59869910E+00 -1.51973982E+01
  7.59869910E+00  7.59869910E+00 -1.51973982E+01  7.59869910E+00  7.59869910E+00
 -1.51973982E+01  7.59869910E+00  7.59869910E+00 -1.51973982E+01  7.59869910E+00
  7.59869910E+00 -1.51973982E+01  7.59869910E+00  7.59869910E+00 -1.51973982E+01
  7.59869910E+00  7.59869910E+00 -1.51973982E+01  7.59869910E+00  7.59869910E+00
 -1.51973982E+01  7.59869910E+00  7.59869910E+00 -1.51973982E+01  7.59869910E+00
  7.59869910E+00 -1.51973982E+01  7.59869910E+00  7.59869910E+00 -1.51973982E+01
  7.59869910E+00  7.59869910E+00 -1.51973982E+01  7.59869910E+00  7.59869910E+00
 -1.51973982E+01  7.59869910E+00  7.59869910E+00 -1.51973982E+01  7.59869910E+00
  7.59869910E+00 -1.51973982E+01  7.59869910E+00  7.59869910E+00
%FLAG ATOMIC_NUMBER
%FORMAT(10I8)
       6       6       1       1       1       1       1       1       6       6
       1       1       1       1       1       9      17      11      18       8
       1       1       8       1       1       8       1       1       8       1
       1       8       1       1       8       1       1       8       1       1
       8       1       1       8       1       1       8       1       1       8
       1       1       8       1       1       8       1       1       8       1
       1       8       1       1       8       1       1       8       1       1
       8       1       1       8       1       1       8       1       1       8
       1       1       8       1       1       8       1       1       8       1
       1       8       1       1       8       1       1       8       1       1
       8       1       1       8       1       1       8       1       1
%FLAG MASS
%FORMAT(5E16.8)
  1.20107800E+01  1.20107800E+01  1.00794700E+00  1.00794700E+00  1.00794700E+00
  1.00794700E+00  1.00794700E+00  1.00794700E+00  1.20107800E+01  1.20107800E+01
  1.00794700E+00  1.00794700E+00  1.00794700E+00  1.00794700E+00  1.00794700E+00
  1.89984032E+01  3.54532000E+01  2.29897693E+01  3.99481000E+01  1.59994300E+01
  1.00794700E+00  1.00794700E+00  1.59994300E+01  1.00794700E+00  1.00794700E+00
  1.59994300E+01  1.00794700E+00  1.00794700E+00  1.59994300E+01  1.00794700E+00
  1.00794700E+00  1.59994300E+01  1.00794700E+00  1.00794700E+00  1.59994300E+01
  1.00794700E+00  1.00794700E+00  1.59994300E+01  1.00794700E+00  1.00794700E+00
  1.59994300E+01  1.00794700E+00  1.00794700E+00  1.59994300E+01  1.00794700E+00
  1.00794700E+00  1.59994300E+01  1.00794700E+00  1.00794700E+00  1.59994300E+01
  1.00794700E+00  1.00794700E+00  1.59994300E+01  1.00794700E+00  1.00794700E+00
  1.59994300E+01  1.00794700E+00  1.00794700E+00  1.59994300E+01  1.00794700E+00
  1.00794700E+00  1.59994300E+01  1.00794700E+00  1.00794700E+00  1.59994300E+01
  1.00794700E+00  1.00794700E+00  1.59994300E+01  1.00794700E+00  1.00794700E+00
  1.59994300E+01  1.00794700E+00  1.00794700E+00  1.59994300E+01  1.00794700E+00
  1.00794700E+00  1.59994300E+01  1.00794700E+00  1.00794700E+00  1.59994300E+01
  1.00794700E+00  1.00794700E+00  1.59994300E+01  1.00794700E+00  1.00794700E+00
  1.59994300E+01  1.00794700E+00  1.00794700E+00  1.59994300E+01  1.00794700E+00
  1.00794700E+00  1.59994300E+01  1.00794700E+00  1.00794700E+00  1.59994300E+01
  1.00794700E+00  1.00794700E+00  1.59994300E+01  1.00794700E+00  1.00794700E+00
  1.59994300E+01  1.00794700E+00  1.00794700E+00  1.59994300E+01  1.00794700E+00
  1.00794700E+00  1.59994300E+01  1.00794700E+00  1.00794700E+00
%FLAG ATOM_TYPE_INDEX
%FORMAT(10I8)
       1       1       2       2       2       2       2       2       3       1
       2       2       2       2       2       4       5       6       7       8
       9       9       8       9       9       8       9       9       8       9
       9       8       9       9       8       9       9       8       9       9
       8       9       9       8       9       9       8       9       9       8
       9       9       8       9       9       8       9       9       8       9
       9       8       9       9       8       9       9       8       9       9
       8       9       9       8       9       9       8       9       9       8
       9       9       8       9       9       8       9       9       8       9
       9       8       9       9       8       9       9       8       9       9
       8       9       9       8       9       9       8       9       9
%FLAG NUMBER_EXCLUDED_ATOMS
%FORMAT(10I8)
       7       6       5       4       3       2       1       1       7       6
       5       4       3       2       1       1       1       1       1       2
       1       1       2       1       1       2       1       1       2       1
       1       2       1       1       2       1       1       2       1       1
       2       1       1       2       1       1       2       1       1       2
       1       1       2       1       1       2       1       1       2       1
       1       2       1       1       2       1       1       2       1       1
       2       1       1       2       1       1       2       1       1       2
       1       1       2       1       1       2       1       1       2       1
       1       2       1       1       2       1       1       2       1       1
       2       1       1       2       1       1       2       1       1
%FLAG NONBONDED_PARM_INDEX
%FORMAT(10I8)
       1       2       4       7      11      16      22      29      37       2
       3       5       8      12      17      23      30      38       4       5
       6       9      13      18      24      31      39       7       8       9
      10      14      19      25      32      40      11      12      13      14
      15      20      26      33      41      16      17      18      19      20
      21      27      34      42      22      23      24      25      26      27
      28      35      43      29      30      31      32      33      34      35
      36      44      37      38      39      40      41      42      43      44
      45
%FLAG RESIDUE_LABEL
%FORMAT(20a4)
MLA MLB CL  NA  PRB WTR WTR WTR WTR WTR WTR WTR WTR WTR WTR WTR WTR WTR WTR WTR 
WTR WTR WTR WTR WTR WTR WTR WTR WTR WTR WTR WTR WTR WTR WTR 
%FLAG RESIDUE_POINTER
%FORMAT(10I8)
       1       9      17      18      19      20      23      26      29      32
      35      38      41      44      47      50      53      56      59      62
      65      68      71      74      77      80      83      86      89      92
      95      98     101     104     107
%FLAG BOND_FORCE_CONSTANT
%FORMAT(5E16.8)
  2.98757170E+02  3.34608031E+02  3.58508604E+02  3.58508604E+02  5.49713193E+02
%FLAG BOND_EQUIL_VALUE
%FORMAT(5E16.8)
  1.53000000E+00  1.09000000E+00  1.10000000E+00  1.38000000E+00  9.57200000E-01
%FLAG ANGLE_FORCE_CONSTANT
%FORMAT(5E16.8)
  3.58508604E+01  3.34608031E+01  4.30210325E+01  4.78011472E+01  4.18260038E+01
  1.00000000E+02
%FLAG ANGLE_EQUIL_VALUE
%FORMAT(5E16.8)
  1.91113553E+00  1.91113553E+00  1.91113553E+00  1.91113553E+00  1.91113553E+00
  1.82400000E+00
%FLAG DIHEDRAL_FORCE_CONSTANT
%FORMAT(5E16.8)
  1.43403442E-01  1.43403442E-01  1.43403442E-01  1.43403442E-01  1.43403442E-01
  1.43403442E-01  1.43403442E-01  1.43403442E-01  1.43403442E-01  1.91204589E-01
  1.43403442E-01  1.43403442E-01  1.43403442E-01  1.43403442E-01  1.43403442E-01
  1.43403442E-01  1.43403442E-01  1.43403442E-01
%FLAG DIHEDRAL_PERIODICITY
%FORMAT(5E16.8)
  3.00000000E+00  3.00000000E+00  3.00000000E+00  3.00000000E+00  3.00000000E+00
  3.00000000E+00  3.00000000E+00  3.00000000E+00  3.00000000E+00  3.00000000E+00
  3.00000000E+00  3.00000000E+00  3.00000000E+00  3.00000000E+00  3.00000000E+00
  3.00000000E+00  3.00000000E+00  3.00000000E+00
%FLAG DIHEDRAL_PHASE
%FORMAT(5E16.8)
  0.00000000E+00  0.00000000E+00  0.00000000E+00  0.00000000E+00  0.00000000E+00
  0.00000000E+00  0.00000000E+00  0.00000000E+00  0.00000000E+00  0.00000000E+00
  0.00000000E+00  0.00000000E+00  0.00000000E+00  0.00000000E+00  0.00000000E+00
  0.00000000E+00  0.00000000E+00  0.00000000E+00
%FLAG SCEE_SCALE_FACTOR
%FORMAT(5E16.8)
  1.20000000E+00  1.20000000E+00  1.20000000E+00  1.20000000E+00  1.20000000E+00
  1.20000000E+00  1.20000000E+00  1.20000000E+00  1.20000000E+00  1.20000000E+00
  1.20000000E+00  1.20000000E+00  1.20000000E+00  1.20000000E+00  1.20000000E+00
  1.20000000E+00  1.20000000E+00  1.20000000E+00
%FLAG SCNB_SCALE_FACTOR
%FORMAT(5E16.8)
  2.00000000E+00  2.00000000E+00  2.00000000E+00  2.00000000E+00  2.00000000E+00
  2.00000000E+00  2.00000000E+00  2.00000000E+00  2.00000000E+00  2.00000000E+00
  2.00000000E+00  2.00000000E+00  2.00000000E+00  2.00000000E+00  2.00000000E+00
  2.00000000E+00  2.00000000E+00  2.00000000E+00
%FLAG SOLTY
%FORMAT(5E16.8)
  0.00000000E+00
%FLAG LENNARD_JONES_ACOEF
%FORMAT(5E16.8)
  1.04263313E+06  9.72553829E+04  7.53328108E+03  8.46639112E+05  7.72376175E+04
  6.85652477E+05  3.76267099E+05  3.19699912E+04  3.02133776E+05  1.29557796E+05
  5.17356418E+06  5.83107459E+05  4.29852482E+06  2.05469439E+06  2.10415009E+07
  1.46715579E+05  1.34751701E+04  1.18914258E+05  5.25353914E+04  7.39740557E+05
  2.06185019E+04  1.42341383E+06  1.35665077E+05  1.15884452E+06  5.19295265E+05
  6.90712362E+06  2.00660288E+05  1.93836740E+06  7.84676462E+05  6.91441644E+04
  6.32830976E+05  2.75174639E+05  4.12846385E+06  1.09891978E+05  1.07838117E+06
  5.80299340E+05  0.00000000E+00  0.00000000E+00  0.00000000E+00  0.00000000E+00
  0.00000000E+00  0.00000000E+00  0.00000000E+00  0.00000000E+00  0.00000000E+00
%FLAG LENNARD_JONES_BCOEF
%FORMAT(5E16.8)
  6.74928889E+02  1.26929151E+02  2.17524875E+01  5.99003673E+02  1.11405607E+02
  5.30909395E+02  3.50426044E+02  6.28972711E+01  3.09268691E+02  1.77719885E+02
  1.47028728E+03  3.03944206E+02  1.31994265E+03  8.00823651E+02  2.89975066E+03
  1.01056865E+02  1.88584991E+01  8.96051011E+01  5.22648474E+01  2.21912845E+02
  1.51213897E+01  8.44144142E+02  1.60471291E+02  7.50156144E+02  4.40670722E+02
  1.81850565E+03  1.26507765E+02  1.05445447E+03  6.35949748E+02  1.16243197E+02
  5.62483018E+02  3.25490025E+02  1.42654918E+03  9.49939462E+01  7.98035840E+02
  5.94003158E+02  0.00000000E+00  0.00000000E+00  0.00000000E+00  0.00000000E+00
  0.00000000E+00  0.00000000E+00  0.00000000E+00  0.00000000E+00  0.00000000E+00
%FLAG BONDS_INC_HYDROGEN
%FORMAT(10I8)
       0       6       2       0       9       2       3      12       2       3
      15       2       3      18       2       0      21       2      24      30
       3      24      33       2      27      36       2      27      39       2
      27      42       2      57      60       5      57      63       5      66
      69       5      66      72       5      75      78       5      75      81
       5      84      87       5      84      90       5      93      96       5
      93      99       5     102     105       5     102     108       5     111
     114       5     111     117       5     120     123       5     120     126
       5     129     132       5     129     135       5     138     141       5
     138     144       5     147     150       5     147     153       5     156
     159       5     156     162       5     165     168       5     165     171
       5     174     177       5     174     180       5     183     186       5
     183     189       5     192     195       5     192     198       5     201
     204       5     201     207       5     210     213       5     210     216
       5     219     222       5     219     225       5     228     231       5
     228     234       5     237     240       5     237     243       5     246
     249       5     246     252       5     255     258       5     255     261
       5     264     267       5     264     270       5     273     276       5
     273     279       5     282     285       5     282     288       5     291
     294       5     291     297       5     300     303       5     300     306
       5     309     312       5     309     315       5     318     321       5
     318     324       5
%FLAG BONDS_WITHOUT_HYDROGEN
%FORMAT(10I8)
       0       3       1      24      27       1      24      45       4
%FLAG ANGLES_INC_HYDROGEN
%FORMAT(10I8)
       3       0       6       1       3       0       9       1       6       0
       9       2       3       0      21       1       6       0      21       2
       9       0      21       2       0       3      12       1       0       3
      15       1       0       3      18       1      12       3      15       2
      12       3      18       2      15       3      18       2      27      24
      30       3      27      24      33       1      30      24      33       2
      30      24      45       5      33      24      45       5      24      27
      36       1      24      27      39       1      24      27      42       1
      36      27      39       2      36      27      42       2      39      27
      42       2      60      57      63       6      69      66      72       6
      78      75      81       6      87      84      90       6      96      93
      99       6     105     102     108       6     114     111     117       6
     123     120     126       6     132     129     135       6     141     138
     144       6     150     147     153       6     159     156     162       6
     168     165     171       6     177     174     180       6     186     183
     189       6     195     192     198       6     204     201     207       6
     213     210     216       6     222     219     225       6     231     228
     234       6     240     237     243       6     249     246     252       6
     258     255     261       6     267     264     270       6     276     273
     279       6     285     282     288       6     294     291     297       6
     303     300     306       6     312     309     315       6     321     318
     324       6
%FLAG ANGLES_WITHOUT_HYDROGEN
%FORMAT(10I8)
      27      24      45       4
%FLAG DIHEDRALS_INC_HYDROGEN
%FORMAT(10I8)
       6       0       3      12       1       9       0       3      12       2
      21       0       3      12       3       6       0       3      15       4
       9       0       3      15       5      21       0       3      15       6
       6       0       3      18       7       9       0       3      18       8
      21       0       3      18       9      36      27      24      30      10
      36      27      24      33      11      36      27      24      45      12
      39      27      24      30      13      39      27      24      33      14
      39      27      24      45      15      42      27      24      30      16
      42      27      24      33      17      42      27      24      45      18
%FLAG DIHEDRALS_WITHOUT_HYDROGEN
%FORMAT(10I8)

%FLAG EXCLUDED_ATOMS_LIST
%FORMAT(10I8)
       2       3       4       5       6       7       8       3       4       5
       6       7       8       4       5       6       7       8       5       6
       7       8       6       7       8       7       8       8       0      10
      11      12      13      14      15      16      11      12      13      14
      15      16      12      13      14      15      16      13      14      15
      16      14      15      16      15      16      16       0       0       0
       0      21      22      22       0      24      25      25       0      27
      28      28       0      30      31      31       0      33      34      34
       0      36      37      37       0      39      40      40       0      42
      43      43       0      45      46      46       0      48      49      49
       0      51      52      52       0      54      55      55       0      57
      58      58       0      60      61      61       0      63      64      64
       0      66      67      67       0      69      70      70       0      72
      73      73       0      75      76      76       0      78      79      79
       0      81      82      82       0      84      85      85       0      87
      88      88       0      90      91      91       0      93      94      94
       0      96      97      97       0      99     100     100       0     102
     103     103       0     105     106     106       0     108     109     109
       0
%FLAG HBOND_ACOEF
%FORMAT(5E16.8)

%FLAG HBOND_BCOEF
%FORMAT(5E16.8)

%FLAG HBCUT
%FORMAT(5E16.8)

%FLAG AMBER_ATOM_TYPE
%FORMAT(20a4)
C1  C1  H1  H1  H1  H1  H1  H1  C2  C1  H1  H1  H1  H1  H1  F1  Cl1 Na1 Ar1 O1  
H2  H2  O1  H2  H2  O1  H2  H2  O1  H2  H2  O1  H2  H2  O1  H2  H2  O1  H2  H2  
O1  H2  H2  O1  H2  H2  O1  H2  H2  O1  H2  H2  O1  H2  H2  O1  H2  H2  O1  H2  
H2  O1  H2  H2  O1  H2  H2  O1  H2  H2  O1  H2  H2  O1  H2  H2  O1  H2  H2  O1  
H2  H2  O1  H2  H2  O1  H2  H2  O1  H2  H2  O1  H2  H2  O1  H2  H2  O1  H2  H2  
O1  H2  H2  O1  H2  H2  O1  H2  H2  
%FLAG TREE_CHAIN_CLASSIFICATION
%FORMAT(20a4)
BLA BLA BLA BLA BLA BLA BLA BLA BLA BLA BLA BLA BLA BLA BLA BLA BLA BLA BLA BLA 
BLA BLA BLA BLA BLA BLA BLA BLA BLA BLA BLA BLA BLA BLA BLA BLA BLA BLA BLA BLA 
BLA BLA BLA BLA BLA BLA BLA BLA BLA BLA BLA BLA BLA BLA BLA BLA BLA BLA BLA BLA 
BLA BLA BLA BLA BLA BLA BLA BLA BLA BLA BLA BLA BLA BLA BLA BLA BLA BLA BLA BLA 
BLA BLA BLA BLA BLA BLA BLA BLA BLA BLA BLA BLA BLA BLA BLA BLA BLA BLA BLA BLA 
BLA BLA BLA BLA BLA BLA BLA BLA BLA 
%FLAG JOIN_ARRAY
%FORMAT(10I8)
       0       0       0       0       0       0       0       0       0       0
       0       0       0       0       0       0       0       0       0       0
       0       0       0       0       0       0       0       0       0       0
       0       0       0       0       0       0       0       0       0       0
       0       0       0       0       0       0       0       0       0       0
       0       0       0       0       0       0       0       0       0       0
       0       0       0       0       0       0       0       0       0       0
       0       0       0       0       0       0       0       0       0       0
       0       0       0       0       0       0       0       0       0       0
       0       0       0       0       0       0       0       0       0       0
       0       0       0       0       0       0       0       0       0
%FLAG IROTAT
%FORMAT(10I8)
       0       0       0       0       0       0       0       0       0       0
       0       0       0       0       0       0       0       0       0       0
       0       0       0       0       0       0       0       0       0       0
       0       0       0       0       0       0       0       0       0       0
       0       0       0       0       0       0       0       0       0       0
       0       0       0       0       0       0       0       0       0       0
       0       0       0       0       0       0       0       0       0       0
       0       0       0       0       0       0       0       0       0       0
       0       0       0       0       0       0       0       0       0       0
       0       0       0       0       0       0       0       0       0       0
       0       0       0       0       0       0       0       0       0
%FLAG SOLVENT_POINTERS
%FORMAT(3I8)
      35      35      36
%FLAG ATOMS_PER_MOLECULE
%FORMAT(10I8)
       8       8       1       1       1       3       3       3       3       3
       3       3       3       3       3       3       3       3       3       3
       3       3       3       3       3       3       3       3       3       3
       3       3       3       3       3
%FLAG BOX_DIMENSIONS
%FORMAT(5E16.8)
  9.00000000E+01  2.40000000E+01  2.40000000E+01  2.40000000E+01
%FLAG RADIUS_SET
%FORMAT(1a80)
0                                                                               
%FLAG RADII
%FORMAT(5E16.8)
  0.00000000E+00  0.00000000E+00  0.00000000E+00  0.00000000E+00  0.00000000E+00
  0.00000000E+00  0.00000000E+00  0.00000000E+00  0.00000000E+00  0.00000000E+00
  0.00000000E+00  0.00000000E+00  0.00000000E+00  0.00000000E+00  0.00000000E+00
  0.00000000E+00  0.00000000E+00  0.00000000E+00  0.00000000E+00  0.00000000E+00
  0.00000000E+00  0.00000000E+00  0.00000000E+00  0.00000000E+00  0.00000000E+00
  0.00000000E+00  0.00000000E+00  0.00000000E+00  0.00000000E+00  0.00000000E+00
  0.00000000E+00  0.00000000E+00  0.00000000E+00  0.00000000E+00  0.00000000E+00
  0.00000000E+00  0.00000000E+00  0.00000000E+00  0.00000000E+00  0.00000000E+00
  0.00000000E+00  0.00000000E+00  0.00000000E+00  0.00000000E+00  0.00000000E+00
  0.00000000E+00  0.00000000E+00  0.00000000E+00  0.00000000E+00  0.00000000E+00
  0.00000000E+00  0.00000000E+00  0.00000000E+00  0.00000000E+00  0.00000000E+00
  0.00000000E+00  0.00000000E+00  0.00000000E+00  0.00000000E+00  0.00000000E+00
  0.00000000E+00  0.00000000E+00  0.00000000E+00  0.00000000E+00  0.00000000E+00
  0.00000000E+00  0.00000000E+00  0.00000000E+00  0.00000000E+00  0.00000000E+00
  0.00000000E+00  0.00000000E+00  0.00000000E+00  0.00000000E+00  0.00000000E+00
  0.00000000E+00  0.00000000E+00  0.00000000E+00  0.00000000E+00  0.00000000E+00
  0.00000000E+00  0.00000000E+00  0.00000000E+00  0.00000000E+00  0.00000000E+00
  0.00000000E+00  0.00000000E+00  0.00000000E+00  0.00000000E+00  0.00000000E+00
  0.00000000E+00  0.00000000E+00  0.00000000E+00  0.00000000E+00  0.00000000E+00
  0.00000000E+00  0.00000000E+00  0.00000000E+00  0.00000000E+00  0.00000000E+00
  0.00000000E+00  0.00000000E+00  0.00000000E+00  0.00000000E+00  0.00000000E+00
  0.00000000E+00  0.00000000E+00  0.00000000E+00  0.00000000E+00
%FLAG SCREEN
%FORMAT(5E16.8)
  0.00000000E+00  0.00000000E+00  0.00000000E+00  0.00000000E+00  0.00000000E+00
  0.00000000E+00  0.00000000E+00  0.00000000E+00  0.00000000E+00  0.00000000E+00
  0.00000000E+00  0.00000000E+00  0.00000000E+00  0.00000000E+00  0.00000000E+00
  0.00000000E+00  0.00000000E+00  0.00000000E+00  0.00000000E+00  0.00000000E+00
  0.00000000E+00  0.00000000E+00  0.00000000E+00  0.00000000E+00  0.00000000E+00
  0.00000000E+00  0.00000000E+00  0.00000000E+00  0.00000000E+00  0.00000000E+00
  0.00000000E+00  0.00000000E+00  0.00000000E+00  0.00000000E+00  0.00000000E+00
  0.00000000E+00  0.00000000E+00  0.00000000E+00  0.00000000E+00  0.00000000E+00
  0.00000000E+00  0.00000000E+00  0.00000000E+00  0.00000000E+00  0.00000000E+00
  0.00000000E+00  0.00000000E+00  0.00000000E+00  0.00000000E+00  0.00000000E+00
  0.00000000E+00  0.00000000E+00  0.00000000E+00  0.00000000E+00  0.00000000E+00
  0.00000000E+00  0.00000000E+00  0.00000000E+00  0.00000000E+00  0.00000000E+00
  0.00000000E+00  0.00000000E+00  0.00000000E+00  0.00000000E+00  0.00000000E+00
  0.00000000E+00  0.00000000E+00  0.00000000E+00  0.00000000E+00  0.00000000E+00
  0.00000000E+00  0.00000000E+00  0.00000000E+00  0.00000000E+00  0.00000000E+00
  0.00000000E+00  0.00000000E+00  0.00000000E+00  0.00000000E+00  0.00000000E+00
  0.00000000E+00  0.00000000E+00  0.00000000E+00  0.00000000E+00  0.00000000E+00
  0.00000000E+00  0.00000000E+00  0.00000000E+00  0.00000000E+00  0.00000000E+00
  0.00000000E+00  0.00000000E+00  0.00000000E+00  0.00000000E+00  0.00000000E+00
  0.00000000E+00  0.00000000E+00  0.00000000E+00  0.00000000E+00  0.00000000E+00
  0.00000000E+00  0.00000000E+00  0.00000000E+00  0.00000000E+00  0.00000000E+00
  0.00000000E+00  0.00000000E+00  0.00000000E+00  0.00000000E+00
%FLAG IPOL
%FORMAT(1I8)
       0
