
  109  0.0000000e+00
  12.0000000  12.0000000  12.0000000  13.5300000  12.0000000  12.0000000
  11.3706882  11.3706882  11.3706882  11.3706882  12.6293118  11.3706882
  14.1593118  12.6293118  12.6293118  14.1593118  11.3706882  11.3706882
  14.1593118  12.6293118  11.3706882  11.3706882  12.6293118  12.6293118
  12.0000000  12.0000000  12.0000000  13.5300000  12.0000000  12.0000000
  11.3706882  11.3706882  11.3706882  11.3706882  12.6293118  11.3706882
  14.1593118  12.6293118  12.6293118  14.1593118  11.3706882  11.3706882
  14.1593118  12.6293118  11.3706882  11.0816311  12.4664731  12.9183689
  11.3706882  15.2293118  15.0293118  13.5300000   7.0000000  15.5000000
  17.7300000  12.0000000  12.0000000   1.7071329   2.3651352   2.2544178
   2.6643329   2.3651352   2.2544178   1.4673478   3.2918147   2.2544178
   2.2830328   2.4863481   8.2770219   3.2402328   2.4863481   8.2770219
   2.0432478   3.4130276   8.2770219   1.5608031   2.3763962  14.3057891
   2.5180031   2.3763962  14.3057891   1.3210180   3.3030757  14.3057891
   1.8958345   1.6119414  20.9020296   2.8530345   1.6119414  20.9020296
   1.6560494   2.5386210  20.9020296   1.9244023   8.6345945   1.5352757
   2.8816023   8.6345945   1.5352757   1.6846172   9.5612740   1.5352757
   1.9379642   8.3698775   8.2513889   2.8951642   8.3698775   8.2513889
   1.6981791   9.2965570   8.2513889   2.4326822   8.1560499  14.6624905
   3.3898822   8.1560499  14.6624905   2.1928972   9.0827294  14.6624905
   1.7543539   8.0597822  20.9708704   2.7115539   8.0597822  20.9708704
   1.5145689   8.9864618  20.9708704   1.6230588  14.0232366   1.7272343
   2.5802588  14.0232366   1.7272343   1.3832737  14.9499162   1.7272343
   2.3718845  14.2337998   8.3950655   3.3290845  14.2337998   8.3950655
   2.1320994  15.1604794   8.3950655   2.4507038  14.7642590  14.5476863
   3.4079038  14.7642590  14.5476863   2.2109188  15.6909385  14.5476863
   2.1296795  14.0895104  20.6264955   3.0868795  14.0895104  20.6264955
   1.8898944  15.0161900  20.6264955   2.0795777  20.8446667   2.2997238
   3.0367777  20.8446667   2.2997238   1.8397926  21.7713462   2.2997238
   2.1294979  20.4890856   8.5789309   3.0866979  20.4890856   8.5789309
   1.8897128  21.4157652   8.5789309   1.6010693  20.8656921  14.6703953
   2.5582693  20.8656921  14.6703953   1.3612842  21.7923716  14.6703953
   1.8430451  20.8026544  20.3817165   2.8002451  20.8026544  20.3817165
   1.6032601  21.7293340  20.3817165   8.4364046   1.6164234   1.7239410
   9.3936046   1.6164234   1.7239410   8.1966195   2.5431030   1.7239410
   8.6340432   2.1243869   8.4437994   9.5912432   2.1243869   8.4437994
   8.3942581   3.0510664   8.4437994   7.7180260   1.8434194  14.1593390
   8.6752260   1.8434194  14.1593390   7.4782409   2.7700989  14.1593390
   8.3749713   2.0231170  21.0166003   9.3321713   2.0231170  21.0166003
   8.1351862   2.9497966  21.0166003   8.3020100   8.5406400   2.2899473
   9.2592100   8.5406400   2.2899473   8.0622250   9.4673195   2.2899473
   8.2279205   7.8400428   8.6883017   9.1851205   7.8400428   8.6883017
   7.9881354   8.7667223   8.6883017   8.6454073   8.4593124  14.6651830
   9.6026073   8.4593124  14.6651830   8.4056223   9.3859919  14.6651830
   7.9670245   8.4475323  20.8254291   8.9242245   8.4475323  20.8254291
   7.7272395   9.3742118  20.8254291   8.5515433  13.9458315   2.3086737
   9.5087433  13.9458315   2.3086737   8.3117583  14.8725110   2.3086737
   8.0027318  14.2711274   8.3484281   8.9599318  14.2711274   8.3484281
   7.7629468  15.1978069   8.3484281   7.7524108  14.1011719  21.0525364
   8.7096108  14.1011719  21.0525364   7.5126258  15.0278514  21.0525364
   8.1581992  20.2737626   2.4384652   9.1153992  20.2737626   2.4384652
   7.9184141  21.2004421   2.4384652   7.9937091  20.4116689   8.2231617
   8.9509091  20.4116689   8.2231617   7.7539241  21.3383484   8.2231617
   8.0698765  20.1173156  14.6249111   9.0270765  20.1173156  14.6249111
   7.8300914  21.0439951  14.6249111
  24.0000000  24.0000000  24.0000000  90.0000000  90.0000000  90.0000000
